7633
1 1 2 0 3 1 0 1 1 0 0 1 0 0 1 0 0 0 0 1 2 0 0 0 0 0 1 0 0 0 1 3 0 0 0 0 1 0 2 0 0 1 0 3 3 1 0 3 2 0 0 1 1 0 2 1 0 0 0 0 0 1 0 1 1 0 0 2 1 3 1 0 0 3 4 0 0 0 3 1 0 0 0 0 0 3 1 0 0 0 1 0 0 0 0 1 2 0 3 3 0 0 1 0 1 0 0 0 0 1 1 2 1 1 1 0 0 0 0 0 0 0 0 0 0 1 8 0 0 0 0 0 0 0 0 0 1 0 1 1 4 0 0 0 0 4 0 0 0 1 0 0 0 0 0 1 0 0 0 1 0 3 2 1 0 0 0 0 0 1 0 0 0 0 0 0 0 0 1 0 0 1 1 1 0 0 2 0 1 2 1 1 2 1 0 1 0 0 2 1 0 1 0 2 0 0 2 1 0 0 0 0 0 0 0 5 1 0 0 0 0 3 0 2 1 0 2 1 0 0 3 0 0 2 1 1 2 0 1 1 0 9 0 1 0 4 0 0 0 1 2 0 0 0 0 0 0 2 0 1 0 0 3 0 1 1 0 1 2 2 0 0 3 0 0 1 0 0 0 0 0 4 1 0 1 2 0 1 2 0 0 1 1 0 1 1 1 2 0 0 7 2 0 1 0 1 0 1 1 0 0 1 0 0 0 0 0 0 0 0 0 0 0 0 0 0 0 0 0 3 1 2 1 4 0 2 1 0 1 1 0 0 0 0 0 4 1 0 0 0 1 0 0 0 0 2 0 0 1 0 3 7 1 0 0 1 2 0 0 0 4 0 0 0 1 1 0 0 0 2 0 0 0 0 0 1 0 0 1 0 1 4 1 0 0 1 0 2 0 1 4 0 0 0 0 0 0 0 0 1 0 0 3 1 0 0 3 0 0 0 0 1 3 1 0 0 0 0 0 3 0 1 0 0 0 0 1 0 0 0 2 1 0 0 1 0 0 0 0 0 0 0 0 3 0 0 0 0 0 2 1 5 0 0 0 0 0 1 0 0 2 0 0 1 0 0 2 1 0 0 0 0 1 0 0 0 0 1 0 2 0 0 0 1 1 0 0 1 0 1 0 0 2 0 0 1 0 3 1 2 2 1 0 0 2 0 4 1 1 0 0 0 1 1 0 1 0 2 0 1 1 0 0 0 0 0 0 0 0 2 1 1 1 0 0 0 0 3 2 3 1 0 3 1 0 3 2 1 0 2 1 0 0 3 0 0 0 1 2 2 0 2 0 0 0 0 0 0 0 1 2 1 1 0 0 1 0 1 1 0 0 0 0 0 2 0 0 1 1 0 0 0 0 1 2 0 0 0 0 1 0 0 2 1 0 1 0 0 0 0 1 1 0 0 1 2 8 1 0 1 2 0 1 0 0 0 0 2 1 2 1 1 4 0 0 0 1 14 1 7 1 1 0 0 0 6 1 0 2 0 0 1 0 1 0 1 0 0 1 0 0 7 1 0 0 1 2 0 0 1 0 0 0 1 0 0 1 0 0 0 0 0 0 0 0 2 1 0 0 2 1 0 1 3 0 0 0 0 0 0 0 1 0 0 1 0 0 3 3 1 0 2 0 1 0 2 1 0 1 0 0 3 0 1 0 0 0 0 1 0 0 0 0 0 1 0 2 1 0 0 2 1 1 3 0 1 4 0 0 1 2 0 0 4 0 0 1 0 1 0 0 1 0 2 2 0 1 3 2 0 1 0 0 6 1 1 0 1 2 0 1 1 1 0 4 0 0 1 0 2 0 0 0 1 1 2 5 2 3 0 0 3 1 1 0 0 0 0 0 0 0 1 1 0 1 0 0 0 0 2 0 1 0 0 1 1 0 0 0 0 2 6 0 0 1 1 4 0 2 1 0 1 1 2 0 1 3 0 5 1 3 0 0 1 0 0 1 0 0 2 3 1 1 0 0 1 3 1 0 0 0 0 0 2 0 0 1 6 2 3 1 0 0 0 0 0 0 0 1 1 2 1 0 0 1 0 0 0 0 0 0 1 1 0 3 0 2 0 0 0 1 0 1 3 2 0 1 1 1 1 0 0 0 1 5 1 0 3 0 1 2 0 1 0 1 0 1 2 1 1 2 1 1 1 0 2 0 0 0 0 1 0 0 0 0 0 3 1 3 0 0 1 0 0 2 0 0 0 3 0 0 1 2 0 0 2 3 0 0 1 0 0 0 0 0 0 0 1 0 0 0 0 0 0 0 0 1 0 1 1 0 0 0 0 0 0 0 0 0 0 0 0 1 0 0 0 1 1 0 1 0 1 0 0 0 1 0 0 0 1 0 0 0 0 0 0 0 0 0 0 0 0 0 1 1 2 0 1 0 0 1 0 0 1 0 0 3 0 1 0 1 1 0 0 0 0 0 0 0 0 0 0 0 1 0 0 0 1 0 0 0 0 0 0 1 1 0 0 0 0 0 0 0 0 0 0 0 0 0 0 0 0 0 1 0 0 0 1 0 0 1 0 0 0 0 0 0 0 0 1 0 0 0 0 0 0 0 0 1 0 0 0 0 0 0 0 1 0 1 0 0 1 0 0 0 0 0 0 0 1 0 0 0 1 0 0 0 0 0 1 0 0 0 0 1 0 0 0 0 0 0 0 0 0 0 0 0 0 0 0 0 0 0 0 0 0 0 0 1 0 0 0 0 0 1 0 0 0 0 1 0 1 0 0 0 0 0 0 1 0 0 0 0 0 0 0 0 0 0 0 0 0 1 0 0 0 0 0 1 0 0 0 0 0 0 0 0 0 0 0 0 1 0 0 0 0 0 0 0 0 0 1 0 1 0 0 1 0 0 0 0 0 0 0 0 0 0 0 0 0 0 0 0 0 0 0 0 0 0 0 0 0 0 0 0 0 0 0 0 0 0 1 0 0 1 0 0 0 0 0 0 0 0 0 0 0 0 1 1 0 0 0 1 0 0 0 0 0 2 1 0 0 0 0 0 0 1 0 0 0 0 0 2 0 0 0 0 1 0 0 1 0 0 0 0 0 4 1 0 0 0 0 1 0 0 1 1 0 0 1 0 0 0 0 1 0 0 1 0 0 0 0 0 0 0 3 0 0 0 0 0 0 1 1 0 0 0 0 0 0 0 0 0 0 1 0 0 1 0 1 0 0 0 0 0 1 0 0 0 0 0 0 0 0 0 0 0 0 0 0 0 0 0 1 0 0 0 0 0 0 0 0 0 0 0 0 1 0 0 0 0 0 0 0 0 0 1 0 0 0 0 0 0 0 0 0 0 0 0 0 0 0 0 0 0 0 0 0 0 1 0 0 0 0 0 0 0 1 0 21 0 0 4 2 1 0 6 6 2 4 1 0 6 8 10 2 2 0 4 5 4 3 7 1 2 3 2 2 4 0 8 3 10 0 4 2 3 2 1 1 1 3 7 1 1 2 0 4 0 19 0 1 2 11 0 0 1 1 19 9 3 1 0 3 3 0 4 0 11 16 0 1 0 7 7 4 5 4 1 1 0 1 1 2 0 5 2 9 7 1 0 1 11 3 0 3 8 1 2 0 2 2 8 5 5 9 28 0 2 3 4 2 12 0 1 0 5 1 0 1 0 10 4 21 2 2 7 3 8 0 1 14 2 11 4 1 1 0 8 1 1 1 1 1 0 1 1 15 1 4 4 1 0 2 3 2 0 1 2 0 0 2 0 13 0 1 5 0 0 29 1 1 3 0 1 2 2 1 6 9 0 0 1 3 6 1 0 5 0 0 0 7 2 1 2 0 15 6 0 8 0 10 0 8 2 1 1 0 14 3 2 0 2 2 1 0 5 1 1 2 10 5 5 0 1 2 1 10 6 2 0 0 0 5 5 1 15 3 5 5 0 1 1 1 1 1 3 11 3 1 0 2 1 23 29 1 1 5 5 1 4 0 1 0 0 0 2 0 7 2 0 0 2 2 1 3 0 7 8 8 1 0 1 0 3 2 0 2 2 5 0 2 0 2 0 3 6 1 0 0 3 0 1 7 2 9 5 1 3 3 1 2 1 0 1 11 0 2 5 1 4 0 0 6 9 10 2 1 1 4 1 8 7 4 4 6 1 1 2 3 1 3 18 1 0 5 6 4 2 0 10 4 12 2 1 1 2 2 20 7 2 6 2 2 3 1 0 0 1 18 0 11 0 7 0 1 1 12 3 1 2 4 2 4 7 6 7 0 1 0 1 0 24 0 2 7 5 2 0 1 14 0 4 2 4 1 0 0 1 0 2 2 0 2 2 9 6 1 2 4 3 1 6 6 1 2 0 1 0 3 0 0 1 3 0 1 12 1 2 17 11 0 6 0 1 4 14 0 18 1 0 6 0 2 10 8 0 5 17 7 3 4 3 0 8 0 3 3 2 4 1 5 0 6 3 2 3 0 5 3 0 0 3 10 1 0 1 1 1 3 3 0 0 9 5 5 7 1 2 1 1 0 1 1 2 0 0 0 1 0 2 1 2 2 2 0 0 0 3 0 1 0 0 1 0 0 0 1 2 0 2 0 1 1 3 2 0 0 0 0 0 0 0 0 0 0 0 1 0 3 1 1 1 0 4 0 2 0 1 2 0 0 0 0 0 1 1 0 0 3 2 0 1 1 1 0 1 2 0 1 0 0 0 0 0 0 1 2 0 0 0 1 0 3 0 1 1 0 0 2 1 2 1 0 0 0 0 0 0 0 1 1 0 0 0 1 1 0 1 1 1 1 3 2 1 2 0 0 0 3 0 0 1 2 0 1 0 0 0 0 0 1 0 0 0 0 0 0 0 0 0 2 1 0 0 0 0 1 5 1 0 0 1 1 0 1 5 0 0 0 4 4 39 1 0 0 1 1 0 0 0 0 1 0 0 0 2 0 0 0 1 1 0 0 0 0 0 0 1 0 2 0 0 0 1 0 0 1 0 0 0 0 0 2 2 0 0 0 6 0 0 2 0 0 0 0 3 0 6 0 0 0 1 0 0 0 5 0 0 0 0 0 1 0 0 1 1 0 0 3 0 1 1 0 2 0 1 0 2 0 0 0 0 0 0 2 3 1 0 0 2 1 0 0 0 0 0 0 3 1 0 0 0 0 0 0 2 0 0 0 0 0 0 0 0 2 0 1 0 0 1 0 0 1 0 0 3 0 1 5 1 0 0 1 0 0 3 1 6 0 1 0 0 32 4 0 1 1 6 1 0 1 1 1 2 2 2 3 1 0 3 1 1 1 3 0 4 0 3 0 3 0 6 1 0 6 0 2 1 1 1 2 0 0 3 0 0 1 0 1 0 0 1 2 5 1 0 4 0 3 0 0 1 6 0 0 0 3 0 0 3 0 0 1 0 1 1 1 0 0 0 3 1 0 0 1 0 1 0 3 0 1 0 4 1 3 12 0 0 3 1 0 0 0 0 0 2 0 0 2 0 0 0 2 0 0 0 12 0 0 0 1 0 4 0 0 2 0 0 0 0 0 1 0 0 3 0 1 0 0 0 0 1 1 0 3 0 0 0 7 0 1 0 5 1 0 1 0 0 0 0 0 0 0 1 0 3 0 0 1 0 2 0 2 0 0 1 0 0 0 4 0 1 0 2 6 0 0 1 0 1 2 0 1 6 0 4 1 1 1 2 1 2 3 3 2 0 1 0 2 0 6 0 2 0 3 1 0 1 3 2 1 0 1 6 0 2 0 1 1 1 3 2 1 2 7 2 0 2 0 0 0 10 4 2 1 3 0 0 0 1 3 2 2 1 0 3 0 0 1 2 0 0 1 1 0 1 1 3 0 16 0 1 0 0 0 0 0 2 0 1 0 0 1 0 2 2 0 12 0 0 0 1 0 3 0 0 0 3 0 5 2 0 4 0 6 2 1 3 7 2 7 0 2 1 0 0 1 3 4 0 6 1 1 1 0 1 1 2 7 8 1 0 1 2 3 0 0 0 0 0 5 0 0 7 3 4 0 0 4 1 1 1 5 1 7 2 2 0 3 17 1 3 4 1 2 0 0 0 1 2 1 1 1 2 0 1 2 6 1 0 0 0 0 7 0 2 5 0 0 3 1 1 0 0 2 6 1 3 0 1 1 2 2 6 6 2 1 5 11 0 7 0 5 1 0 1 0 0 1 1 0 1 1 0 1 1 1 3 1 0 1 1 1 4 1 1 1 0 0 2 3 2 0 2 5 14 1 3 2 1 1 1 0 1 2 0 19 0 0 6 3 3 0 5 4 0 7 1 1 4 1 0 2 2 17 0 1 2 1 0 1 2 0 0 0 3 1 2 1 11 6 8 1 2 2 4 0 4 1 3 2 0 0 0 0 3 0 0 9 2 4 2 1 1 3 4 2 8 3 0 4 1 3 0 3 1 1 1 0 4 2 2 0 1 0 1 2 1 0 3 1 0 0 1 0 0 2 1 1 1 0 1 0 2 6 1 1 0 2 4 2 1 8 0 3 1 0 1 4 1 0 2 3 4 0 1 3 1 0 2 2 2 3 0 1 0 1 4 1 12 0 1 7 3 4 0 3 0 6 3 0 2 13 2 0 0 0 0 3 0 1 0 1 2 4 2 10 0 0 1 11 1 1 2 4 0 2 0 0 0 3 1 0 0 0 2 2 1 2 1 0 0 4 2 1 1 3 3 1 2 2 3 0 6 0 1 0 0 9 0 0 3 1 3 5 0 1 0 2 7 8 0 2 0 0 2 2 0 0 4 0 4 0 2 1 0 7 0 9 4 10 2 0 0 0 0 6 13 4 18 4 0 1 0 0 1 6 0 0 10 0 1 10 0 5 0 2 0 8 27 0 0 1 2 2 17 0 1 0 2 2 3 0 1 0 3 1 2 39 5 5 0 0 1 2 2 2 0 0 11 3 1 5 4 4 0 12 1 0 1 1 1 1 0 2 1 1 0 1 2 3 0 2 0 2 6 0 0 0 0 2 1 0 1 3 8 5 9 0 7 2 2 0 5 11 0 6 3 1 35 3 2 8 2 0 2 8 0 3 2 2 4 11 0 0 0 2 2 0 4 0 0 2 0 17 1 0 0 2 0 2 1 0 2 0 0 2 1 1 2 0 0 0 1 4 0 2 3 1 0 2 3 1 1 0 0 6 6 1 1 13 1 1 0 2 2 0 1 0 4 1 1 0 0 0 1 0 1 1 4 1 0 3 0 3 13 0 0 0 3 1 0 4 3 0 7 1 0 3 0 0 1 0 0 1 0 0 0 1 0 1 6 1 12 0 3 2 3 7 2 4 4 2 14 6 1 1 7 0 0 1 2 0 0 1 0 0 1 5 1 4 2 5 1 2 3 7 1 3 3 1 0 10 3 2 2 1 1 1 0 0 3 1 2 0 6 1 4 0 0 0 0 2 1 1 0 0 0 0 3 0 1 1 0 5 1 0 1 1 16 1 6 0 1 0 3 13 0 3 0 0 2 0 0 0 0 1 9 0 0 13 3 0 0 2 0 2 2 0 3 1 3 8 33 2 0 0 2 4 12 1 1 1 1 5 0 3 2 1 6 1 0 0 0 0 0 1 2 2 5 1 1 1 0 0 0 0 1 0 0 0 2 2 0 1 1 0 5 1 1 0 0 0 0 4 1 2 2 1 36 0 4 2 1 0 1 2 0 1 5 2 1 1 0 1 3 1 2 0 0 1 0 0 2 2 0 1 3 0 7 1 2 2 1 2 0 0 0 4 0 0 12 0 1 5 1 9 0 0 0 1 0 0 2 0 2 1 2 8 3 0 1 3 0 0 0 5 1 4 2 1 6 2 5 0 5 1 3 7 0 0 3 1 2 0 3 4 4 1 4 1 3 27 0 11 6 2 2 0 0 0 2 3 0 1 0 0 0 1 0 0 1 0 0 0 4 1 0 0 0 0 0 1 0 0 0 0 0 0 2 0 1 0 6 0 0 0 0 1 1 0 1 0 0 1 0 2 0 0 0 2 0 0 1 0 1 0 0 3 0 0 0 0 1 1 1 1 0 0 0 0 0 2 0 0 2 0 5 0 0 0 3 1 1 0 5 0 0 0 1 0 2 1 1 0 4 0 0 0 0 0 0 2 1 0 1 1 0 1 0 0 0 0 1 0 1 1 2 0 2 0 0 1 1 3 2 1 3 0 1 2 0 1 0 0 0 0 0 0 2 0 0 0 1 1 0 0 1 1 0 0 0 0 1 1 0 1 1 2 0 0 3 2 0 1 0 1 0 0 1 3 1 0 2 0 0 0 1 0 0 0 1 2 1 0 0 1 0 0 0 0 0 0 0 0 2 0 3 1 1 0 4 0 0 0 0 2 1 1 0 2 1 0 0 1 0 2 1 1 0 0 1 1 0 1 1 0 1 0 0 0 1 1 0 1 0 2 0 1 0 0 1 0 0 0 0 0 0 1 1 1 1 1 1 0 3 0 2 3 0 0 2 2 0 0 2 1 0 1 1 0 1 0 1 1 0 2 0 7 0 0 0 7 1 0 0 2 0 0 0 1 0 0 1 1 1 1 3 1 1 1 2 0 2 0 0 0 1 1 0 2 0 2 1 0 0 0 2 1 0 2 0 0 1 2 0 2 3 1 0 2 0 0 1 1 0 0 0 0 0 0 1 0 0 2 0 0 0 0 1 0 1 1 0 0 0 0 0 0 1 0 0 0 2 0 1 0 2 0 1 0 0 0 0 1 0 0 0 0 0 1 0 3 0 2 1 1 0 1 0 0 2 1 0 2 0 0 1 1 0 0 0 0 0 0 0 0 1 0 0 0 0 0 1 0 0 2 0 0 0 0 0 0 0 0 0 3 2 0 0 0 2 0 1 0 0 0 0 1 0 0 2 1 4 1 1 0 2 0 1 1 0 0 0 2 0 0 2 0 0 0 0 0 0 0 0 1 0 3 4 2 0 2 1 0 0 1 1 0 0 0 0 0 0 0 1 1 0 0 0 0 0 0 2 0 0 0 2 0 0 0 0 1 0 6 0 1 0 0 0 0 0 1 0 1 0 0 0 0 2 1 0 0 2 0 0 1 0 0 1 0 1 1 0 1 0 0 0 1 0 1 1 2 0 8 1 4 2 0 0 1 2 1 0 1 2 4 1 6 4 0 0 0 6 0 0 1 1 1 0 0 0 1 0 0 0 1 0 0 0 0 3 0 0 2 5 2 0 0 0 5 0 0 7 1 2 1 1 0 2 1 0 9 1 0 1 0 0 6 0 2 3 0 0 1 4 0 0 5 0 1 0 0 1 0 2 1 0 4 0 2 0 0 0 0 0 2 1 1 1 0 3 0 1 0 0 0 1 0 3 1 0 1 2 1 0 1 0 0 1 0 2 1 0 0 2 1 1 1 1 0 4 1 0 10 2 2 0 0 1 5 0 1 1 0 0 0 0 0 1 4 0 0 0 0 5 0 2 1 2 1 0 0 1 3 4 3 1 2 2 1 0 0 0 1 0 1 0 0 1 0 0 0 2 1 1 9 2 0 0 0 2 0 0 0 0 1 0 0 0 0 1 2 0 1 7 0 2 0 0 2 3 1 0 0 0 0 6 0 1 0 0 1 0 3 0 0 0 0 0 0 0 5 2 3 0 0 0 0 2 0 6 1 1 0 0 0 0 1 2 0 0 1 0 2 3 2 2 0 0 5 3 0 0 1 4 8 0 0 0 2 2 1 0 1 0 0 0 2 0 1 1 0 2 5 0 4 0 1 0 0 0 0 0 0 2 4 6 2 1 0 2 1 0 5 0 0 0 0 0 0 0 1 1 4 3 1 0 0 0 4 0 0 3 2 0 0 0 0 0 1 2 13 2 0 2 1 6 8 1 5 1 0 3 0 0 4 5 0 0 0 0 1 0 0 0 0 3 1 4 3 0 3 1 0 0 0 0 0 0 1 0 1 4 2 0 1 1 0 0 5 1 0 0 0 3 2 0 1 2 0 0 4 0 1 0 0 1 0 1 2 0 1 0 1 0 1 0 1 0 2 0 0 1 0 0 2 1 1 2 4 1 0 0 2 0 0 0 0 1 2 1 1 0 1 0 1 2 2 0 0 0 2 1 3 0 1 1 0 1 0 1 0 0 0 0 0 0 0 0 7 1 6 24 4 12 1 1 1 4 0 1 0 6 10 7 1 0 0 6 0 1 1 19 1 11 2 0 8 1 4 2 3 1 2 3 6 5 2 0 0 3 0 5 1 6 4 1 14 2 1 0 1 0 10 9 0 0 5 0 0 1 2 5 2 2 1 0 2 2 0 0 6 1 5 4 1 1 4 4 0 1 0 0 0 2 5 1 1 1 1 7 4 6 0 1 0 4 1 5 0 1 1 0 2 2 0 3 12 0 1 11 0 0 4 1 4 2 3 0 0 2 0 0 2 1 4 1 9 1 16 4 0 3 0 8 4 1 1 0 2 0 0 4 0 0 1 1 4 13 0 5 3 1 9 8 9 1 5 2 0 0 10 1 5 0 5 0 2 1 3 0 7 4 1 8 2 0 2 0 12 1 2 1 0 0 2 0 0 11 4 7 12 5 0 2 1 2 2 0 0 0 0 2 0 0 3 5 0 2 4 0 0 10 1 0 6 3 0 2 1 0 0 8 3 0 0 1 9 0 0 1 0 10 0 0 0 4 0 0 2 1 2 2 1 2 0 0 0 0 4 0 2 0 4 7 0 1 1 3 4 10 0 2 1 0 35 9 0 0 3 3 2 4 10 2 10 18 1 0 1 3 0 0 10 3 0 2 1 4 6 2 0 3 6 0 0 2 0 1 1 5 1 8 23 1 0 4 2 12 1 0 2 0 1 0 0 5 3 1 9 0 0 19 0 1 0 0 0 3 0 0 39 2 0 1 5 8 4 2 0 0 5 2 0 3 0 1 0 5 4 1 0 0 5 2 8 4 9 1 1 0 2 6 1 1 1 3 0 2 7 19 0 0 0 3 0 0 8 1 13 1 1 3 2 1 1 2 0 2 1 14 0 3 15 5 26 0 14 5 4 0 3 1 0 1 0 4 2 5 3 13 3 0 1 6 2 1 1 4 14 5 9 0 0 4 1 1 1 0 0 6 19 1 0 2 0 5 1 1 3 0 0 2 1 0 3 1 0 1 4 1 0 0 2 4 3 2 3 0 0 1 2 4 0 4 10 0 3 0 1 0 0 0 15 5 0 17 0 14 0 14 12 9 0 1 2 6 0 2 2 0 4 0 18 1 4 0 1 0 0 2 0 0 0 0 0 1 0 0 0 3 3 1 0 2 0 0 0 0 0 0 1 0 0 0 0 0 4 0 1 3 0 0 0 1 0 0 0 0 0 0 0 1 1 0 1 0 1 0 0 0 0 0 0 0 0 3 0 1 1 1 0 1 0 1 2 0 0 0 0 0 0 0 0 0 0 0 0 0 0 0 0 0 0 0 0 0 0 2 0 0 0 0 0 0 0 1 1 1 1 0 0 1 0 0 0 0 1 0 3 0 0 0 1 1 1 0 0 0 0 0 0 0 1 0 0 0 0 2 0 1 0 0 0 0 0 2 0 0 2 0 0 0 0 0 0 0 0 1 0 0 0 0 0 0 1 0 0 2 0 0 4 0 1 0 4 0 0 2 1 0 0 0 0 0 0 0 0 0 0 0 0 4 0 0 0 0 0 0 0 0 0 0 0 0 0 0 1 1 1 0 0 0 0 1 0 1 0 0 0 0 1 0 0 0 0 0 0 0 0 0 0 0 0 0 0 2 0 0 0 0 1 0 0 0 0 0 0 0 0 1 0 0 4 0 0 0 0 1 0 0 0 1 0 0 1 0 0 0 0 0 0 2 2 0 0 0 1 0 0 0 1 0 0 0 0 0 0 0 1 0 0 0 0 0 0 1 0 0 1 0 1 0 2 0 0 1 2 0 0 0 0 0 0 2 1 0 0 0 0 1 0 0 0 0 0 0 0 0 0 0 0 0 0 1 0 0 0 0 0 0 0 0 1 0 2 0 0 0 0 0 0 0 0 0 0 0 1 0 0 1 0 0 0 1 0 1 0 0 3 0 0 0 0 0 0 0 0 0 1 0 2 0 0 0 0 0 0 0 0 0 0 1 0 0 0 0 0 0 0 0 0 0 0 0 0 0 0 0 0 1 0 0 1 0 1 0 0 0 0 0 0 0 1 0 0 0 0 0 0 0 0 1 0 0 0 1 0 0 0 0 0 0 1 1 0 0 2 0 0 1 2 2 0 0 0 0 3 0 0 1 0 1 0 0 0 1 1 0 0 0 0 0 1 0 0 1 0 0 0 0 0 0 1 0 0 0 0 0 0 0 1 2 0 0 0 0 0 1 0 0 1 0 5 0 0 0 0 0 0 0 0 0 0 0 0 0 1 1 0 0 0 2 0 0 0 1 0 4 0 0 0 0 0 1 0 0 0 0 0 3 0 0 0 0 0 0 0 0 1 0 2 0 0 1 0 1 0 0 0 1 0 1 0 0 1 1 0 0 0 0 0 0 1 0 0 0 1 0 0 2 0 1 0 0 0 1 0 1 0 0 0 1 0 0 0 1 0 1 0 1 2 0 0 0 0 1 2 0 0 2 0 1 0 0 0 0 0 0 0 0 0 2 0 0 0 0 1 0 2 2 3 1 0 0 0 2 0 0 0 0 1 1 0 1 0 0 2 1 0 0 0 0 0 0 0 0 0 0 0 4 0 0 3 0 1 0 0 0 1 0 0 0 0 0 0 2 0 2 0 0 1 0 1 0 1 0 0 0 0 0 1 0 0 0 0 0 0 0 0 0 0 0 0 0 0 0 1 0 0 2 0 0 0 0 0 0 0 1 1 1 1 0 0 0 1 0 0 1 0 0 0 0 0 0 0 0 0 0 2 0 0 0 0 0 0 0 0 1 0 1 0 0 1 0 0 0 0 0 0 0 1 2 0 0 4 0 0 0 1 0 0 0 1 1 0 1 1 0 1 1 0 0 0 0 0 0 0 0 1 0 0 0 1 1 0 0 0 0 0 0 0 0 0 0 0 0 2 1 1 0 0 0 0 0 0 1 0 0 0 0 0 2 2 0 0 0 0 0 1 0 0 0 0 0 1 0 1 0 0 0 0 0 0 0 0 0 0 0 0 0 4 0 2 0 1 2 0 1 0 0 0 1 0 0 0 1 0 0 0 0 1 0 0 4 1 0 0 1 0 1 1 0 0 0 0 0 0 0 0 0 0 2 0 0 0 0 2 0 0 0 0 0 0 0 1 0 0 0 1 0 0 0 0 0 0 0 0 0 0 0 2 0 0 2 0 0 0 2 0 0 1 0 0 0 0 0 0 0 0 0 0 0 0 0 0 0 0 0 0 0 0 1 1 0 1 0 1 0 1 0 0 0 0 1 1 0 0 0 0 1 0 0 0 0 0 0 0 0 0 0 1 0 0 0 2 0 0 1 0 0 2 1 0 4 0 0 3 0 0 0 0 0 0 1 3 0 0 0 0 0 0 0 0 0 0 0 0 0 0 0 0 0 0 0 0 0 0 0 0 0 0 0 0 0 0 0 0 0 0 0 0 0 0 0 0 0 0 0 0 0 0 0 0 0 0 0 1 1 0 0 0 0 1 0 0 0 0 0 0 0 0 0 0 1 0 1 0 0 0 0 0 1 0 0 0 0 0 0 0 0 0 0 0 0 0 0 0 0 0 0 0 0 0 0 0 0 0 0 0 0 0 0 0 0 0 0 0 0 0 0 0 0 0 0 0 0 0 0 0 0 0 0 0 0 1 0 0 0 0 0 0 0 0 0 0 0 0 0 0 0 0 0 0 0 1 0 0 0 0 0 0 0 0 0 1 0 0 0 0 0 0 0 0 0 0 0 0 0 0 0 1 0 0 0 1 0 0 0 0 0 0 0 1 0 0 0 0 0 0 0 0 0 0 0 0 0 1 0 0 0 0 0 0 0 0 0 0 0 0 1 0 0 0 0 0 0 0 0 0 0 0 0 0 0 0 0 0 0 0 0 0 0 0 0 0 0 0 0 0 0 0 0 0 0 0 0 1 0 0 0 0 0 0 0 0 0 0 0 0 0 0 0 0 0 0 1 0 0 0 0 0 0 0 0 0 0 0 0 1 0 0 0 0 0 0 0 0 0 3 0 0 0 0 0 0 0 0 0 0 0 0 0 0 0 1 0 1 0 0 0 0 0 0 0 0 0 0 1 0 0 0 0 1 0 0 0 0 0 1 0 0 0 0 0 0 0 0 0 0 0 0 0 0 1 0 0 0 0 0 0 1 0 0 0 0 0 0 0 0 0 0 0 0 0 0 0 0 0 1 0 0 1 0 0 0 0 0 0 0 0 0 0 0 0 0 0 0 0 0 0 0 0 0 0 0 0 0 0 0 0 0 0 0 0 0 0 1 0 0 0 0 0 0 0 0 0 0 0 0 0 1 0 0 1 0 1 0 0 0 0 0 0 0 0 0 0 0 0 0 0 0 0 0 0 0 0 0 0 2 0 0 0 0 1 0 0 0 0 0 0 0 0 0 0 0 0 0 0 0 0 0 0 0 0 0 0 0 1 0 0 0 0 0 0 0 0 0 0 0 0 2 0 0 0 0 0 0 0 1 0 0 0 0 0 0 0 0 0 0 0 0 0 0 1 0 0 1 0 0 0 0 0 0 0 0 0 0 0 0 0 0 0 0 0 0 0 0 0 1 0 0 0 0 0 0 0 0 0 0 0 0 0 0 0 0 0 0 0 0 0 0 0 0 0 0 0 0 0 0 0 0 0 0 0 1 0 0 0 0 0 0 0 0 0 0 0 0 0 2 1 0 0 0 0 0 0 0 0 0 0 0 0 0 0 0 0 0 0 0 0 1 0 0 0 0 0 0 0 0 0 0 0 0 0 0 0 0 0 0 1 0 0 0 0 0 1 0 0 0 0 0 1 0 0 1 1 0 0 1 2 1 1 2 0 0 1 1 0 0 0 1 1 0 0 0 0 0 0 1 1 0 0 0 3 0 0 0 0 0 0 0 0 3 2 0 2 0 2 2 0 1 0 0 2 3 0 0 0 0 1 0 1 2 0 0 0 1 0 2 2 1 1 0 0 0 1 1 0 0 3 2 0 0 0 2 0 1 0 0 0 1 0 2 0 0 0 0 0 0 0 1 2 1 0 0 0 0 2 0 3 3 0 6 0 1 0 0 1 0 0 1 0 1 0 0 0 2 1 2 4 0 0 0 0 0 1 0 1 0 2 0 4 0 0 1 0 0 0 0 0 0 0 0 0 0 0 8 0 0 0 0 0 0 0 0 0 5 0 2 2 0 1 2 0 0 0 2 0 1 2 0 1 2 0 0 0 1 0 2 2 1 1 1 0 0 4 0 3 0 0 0 0 2 0 6 0 1 1 0 0 0 0 0 0 2 0 3 4 1 0 0 1 0 0 0 0 5 2 1 0 0 0 0 0 1 0 0 1 2 0 1 2 0 0 0 9 0 0 1 1 0 0 0 0 0 0 0 0 3 1 2 0 0 1 5 0 3 1 2 0 0 0 1 1 1 0 1 0 0 0 3 0 0 0 0 0 0 0 1 2 0 0 1 0 4 0 0 7 0 0 1 0 3 0 6 1 0 0 1 0 3 2 1 1 0 2 0 3 0 1 0 2 0 2 1 0 0 3 0 2 1 0 0 0 1 0 2 1 0 0 1 0 0 1 0 0 0 3 0 1 1 0 3 1 0 6 2 2 0 1 0 0 0 1 1 1 0 0 0 0 0 0 0 0 2 2 0 3 1 0 0 0 0 2 0 0 0 0 1 0 0 1 0 1 2 0 1 1 1 4 1 1 4 0 1 1 0 0 0 0 2 0 1 2 1 2 5 0 2 0 2 0 0 0 0 1 1 0 1 0 0 0 0 0 0 0 0 0 0 3 1 0 0 0 0 0 1 1 0 8 0 0 0 0 1 14 0 2 1 0 1 0 0 2 0 1 2 0 1 1 0 2 3 0 0 0 1 0 3 0 0 0 1 1 0 1 0 0 0 0 1 0 2 1 0 1 0 0 0 2 1 0 1 1 0 1 0 0 1 0 2 1 0 0 1 0 5 0 0 0 0 2 0 1 0 0 4 0 0 0 1 0 2 0 0 0 0 0 0 0 0 2 0 0 2 3 0 0 0 0 0 1 0 0 0 0 0 0 0 0 0 5 1 0 1 0 1 2 0 2 0 0 2 0 1 1 0 0 1 0 0 0 1 0 1 0 1 2 0 0 0 0 0 0 1 0 0 1 2 1 2 1 0 0 0 0 0 0 1 1 0 0 0 2 0 0 1 0 7 0 0 2 0 0 0 0 2 1 0 1 1 1 0 1 2 0 0 0 0 0 1 1 1 0 0 0 0 0 2 7 2 0 0 4 5 1 0 0 0 0 0 1 1 2 2 4 0 0 0 0 0 0 0 3 0 0 0 0 0 0 2 0 0 0 0 0 3 3 0 0 1 0 3 1 6 0 2 1 0 1 0 0 0 2 0 0 0 1 0 0 3 0 1 0 0 1 0 0 9 0 2 0 0 6 0 0 0 0 3 1 0 4 9 1 0 0 0 4 2 1 0 0 3 1 0 0 3 0 0 0 0 2 0 2 0 0 1 2 0 0 2 0 0 0 0 0 0 0 3 1 0 0 3 0 0 3 0 0 0 0 2 0 0 0 0 1 0 1 0 0 1 0 1 2 0 0 0 0 0 0 3 1 0 1 0 0 0 5 0 0 4 2 0 2 0 0 1 0 0 0 0 4 1 0 1 0 0 2 0 1 0 1 2 0 0 0 1 1 1 2 4 0 1 0 5 0 0 0 0 0 0 3 2 0 1 2 0 1 2 0 0 1 0 0 0 1 0 0 0 1 5 0 1 1 1 0 3 1 0 3 0 1 0 0 0 0 0 0 0 0 1 0 0 1 0 0 0 0 1 0 2 3 1 0 0 2 0 2 0 0 0 0 0 3 1 1 0 1 0 1 1 3 0 0 0 0 0 0 0 1 1 0 0 1 0 2 0 0 0 2 0 1 0 0 0 0 0 0 0 0 0 4 3 1 0 0 2 0 0 4 0 0 5 1 0 6 1 0 0 1 0 0 0 0 0 1 3 0 0 0 0 0 1 1 1 0 3 0 0 0 0 0 0 0 0 0 0 1 1 2 
89
100
7149 2022 6531 3576 2670 1930 7219 851 4522 1907 1948 4973 5174 1558 1146 2501 1837 3457 6643 2981 4840 647 3524 2987 1686 4757 2974 1548 4743 385 4539 3385 1949 360 7087 7477 3085 1524 3162 4545 203 1687 6997 4075 1726 808 5433 3168 4809 4010 569 3017 4201 5564 5342 3334 1618 4272 4528 2044 929 1392 4784 1767 3117 4882 2723 3116 4369 1814 3340 4563 1983 2308 2942 1768 461 1795 1945 2783 4407 6937 4033 2880 4514 3171 2298 2994 4496 1892 1698 1549 3167 4439 4704 4823 6755 4669 1728 1550 
