1367
0 1 0 0 47 1 0 0 0 3 0 0 0 25 3 0 1 3 0 0 1 0 0 2 0 2 0 0 0 5 0 0 0 0 0 5 8 5 1 36 1 0 1 5 0 0 0 1 0 1 0 0 0 1 0 0 1 0 0 2 0 0 0 0 0 2 0 1 0 1 45 0 0 0 4 0 1 0 5 0 1 0 0 8 0 0 0 0 0 0 0 1 0 1 0 0 1 1 0 0 0 5 0 0 1 0 3 1 0 0 4 7 1 1 0 0 0 5 7 0 2 9 1 2 0 4 0 1 1 1 1 5 0 0 0 0 1 0 2 5 24 2 13 1 1 0 20 0 5 7 22 0 0 48 0 44 6 2 1 1 0 2 14 0 0 0 2 2 1 7 48 0 1 9 0 0 0 0 0 0 3 0 5 0 0 1 0 0 0 1 0 0 1 2 6 1 4 0 3 0 0 0 0 0 0 8 2 1 0 3 0 2 0 0 0 2 0 0 0 0 8 0 0 0 0 1 4 0 14 0 0 3 3 0 0 5 1 0 0 4 0 0 11 3 0 3 0 0 0 2 5 0 0 2 1 1 0 13 3 37 0 0 0 0 7 0 0 3 0 2 0 0 2 2 3 1 0 0 0 4 1 0 0 0 1 3 0 6 0 0 0 0 0 0 1 1 0 2 0 0 0 38 5 0 38 0 0 0 0 0 0 0 0 0 0 2 0 0 0 12 0 5 0 1 0 2 0 40 0 0 0 0 0 3 0 0 1 0 0 2 29 44 0 0 0 0 1 0 1 44 11 10 0 0 0 1 4 0 0 0 0 2 14 0 0 0 3 0 5 0 0 2 0 1 0 0 4 9 0 0 0 2 0 17 11 10 2 0 0 0 0 0 0 0 2 0 0 1 0 0 1 6 0 0 0 0 1 4 0 1 3 0 0 0 5 0 0 0 0 0 0 0 5 0 0 1 0 0 2 1 0 0 3 14 0 0 0 0 0 0 0 0 1 1 0 8 1 0 0 0 0 0 0 0 0 2 0 0 46 15 0 0 0 0 3 0 1 13 0 1 8 0 5 2 1 1 4 0 41 9 0 0 1 10 0 1 0 0 0 0 0 10 2 0 3 7 1 0 0 0 12 1 0 0 2 0 4 0 3 0 2 0 11 3 0 1 3 0 0 4 0 0 0 0 0 0 0 0 1 3 0 13 0 0 29 1 0 0 0 0 1 0 5 0 18 2 0 0 0 4 0 11 4 0 18 7 7 0 10 0 0 0 0 0 0 0 0 1 0 0 0 0 0 0 1 0 0 0 0 38 2 1 2 0 21 2 0 5 3 0 0 0 0 0 0 5 0 0 0 0 0 0 0 4 0 7 48 7 2 2 0 0 0 0 0 0 0 0 0 0 0 0 2 0 0 0 3 0 0 0 1 3 0 39 0 0 4 3 0 0 2 3 1 0 2 0 0 7 0 0 2 0 0 4 0 1 0 5 2 1 2 1 0 0 48 0 1 0 8 0 12 0 2 0 1 0 0 2 0 0 0 0 2 5 16 0 0 2 11 0 17 3 9 1 4 1 0 0 0 0 0 1 2 0 2 2 0 1 0 3 1 0 0 0 1 0 0 22 4 1 1 3 1 0 6 10 2 0 2 0 1 0 0 0 2 0 0 0 0 0 3 0 0 0 43 0 0 0 0 2 1 2 1 47 0 0 0 6 0 2 17 12 0 0 0 0 0 0 0 3 3 29 0 5 0 0 0 0 15 4 48 0 0 0 1 0 1 0 0 0 0 1 13 0 13 4 10 0 0 1 0 1 0 0 1 0 13 0 1 0 2 10 22 5 0 0 0 0 1 1 0 0 0 0 0 0 0 2 0 3 1 0 40 9 0 0 1 3 3 8 2 0 0 0 1 2 1 0 0 1 1 1 0 0 0 0 0 0 0 0 0 0 0 0 0 0 0 10 16 0 0 0 1 22 0 0 1 3 23 0 0 0 0 7 1 16 0 0 0 0 2 1 0 0 6 0 2 0 23 0 45 1 0 0 0 0 0 0 1 3 0 0 0 6 0 1 1 1 0 0 2 0 0 0 1 0 0 0 21 0 0 0 1 0 2 0 0 1 0 0 0 0 0 0 0 0 0 0 0 0 11 0 0 0 0 0 0 0 27 1 5 22 0 4 11 0 3 0 2 0 4 1 0 1 2 0 1 2 0 0 2 1 0 12 0 0 0 0 0 0 0 0 2 0 0 5 0 0 1 1 2 0 0 0 0 13 0 0 0 0 0 1 0 0 0 0 0 0 2 3 0 0 0 48 0 5 0 0 0 3 0 0 0 0 0 0 0 0 2 0 0 3 0 6 0 0 0 0 0 0 15 0 0 1 1 1 4 1 8 11 1 0 0 11 1 2 2 0 0 9 10 0 0 3 0 4 0 0 0 0 8 10 0 0 6 7 10 3 0 0 1 4 9 0 7 0 1 3 1 6 1 12 3 11 25 23 1 1 0 1 0 3 0 0 0 0 13 0 0 0 3 0 1 2 0 0 0 0 13 2 0 10 1 1 0 12 0 27 0 1 1 0 0 0 0 0 0 0 0 0 0 0 13 1 0 31 40 1 0 0 2 0 7 0 1 2 4 0 3 0 35 0 2 0 0 0 0 0 0 2 0 4 23 0 0 0 0 0 0 0 0 5 2 0 0 0 3 0 1 4 0 2 1 0 0 2 0 0 3 1 2 2 0 2 0 0 0 2 0 1 1 5 0 0 0 1 0 5 0 0 2 0 0 0 0 1 0 1 2 0 4 0 47 0 3 2 7 0 4 0 15 1 22 0 0 0 0 1 0 1 0 0 0 1 0 0 0 0 17 0 42 3 3 1 0 0 0 0 2 0 0 1 6 7 0 0 0 0 6 6 0 2 0 48 0 0 0 1 1 0 0 0 0 25 0 0 0 2 7 1 0 13 0 2 0 3 4 0 1 16 0 0 6 0 0 0 0 0 1 0 13 0 0 1 0 0 0 0 0 0 3 6 0 0 0 0 0 2 0 0 0 0 0 2 1 0 0 0 9 1 0 2 1 3 0 6 0 
48
80
1311 401 780 513 155 4 544 153 970 1084 873 688 885 70 327 1170 950 349 664 829 1303 721 78 900 759 478 1092 259 1227 150 761 458 695 753 1105 961 470 812 508 170 121 83 279 554 534 264 500 149 13 341 1104 301 605 36 242 606 239 833 1038 1023 771 479 1050 304 1242 1156 644 1293 249 376 1059 340 898 670 832 983 647 579 529 556 
