7633
0 0 0 0 0 0 0 2 0 0 0 0 5 0 0 0 0 0 0 0 0 0 0 0 0 0 0 0 0 0 0 0 3 0 1 0 2 0 1 0 0 0 0 1 0 0 0 0 0 0 0 0 0 0 1 0 0 0 0 0 0 0 0 0 1 0 2 0 0 0 1 0 4 0 0 0 0 0 0 0 0 0 0 0 0 0 0 0 0 0 0 4 0 0 0 0 0 0 0 0 0 0 2 0 0 0 0 0 0 0 0 0 1 0 0 0 0 0 0 0 0 0 0 0 0 0 0 0 0 0 0 4 6 0 0 1 0 0 0 0 0 0 0 0 0 0 0 14 0 0 0 0 0 0 0 0 0 0 0 0 0 0 0 0 0 1 0 2 0 0 0 0 0 2 0 4 0 0 0 0 0 0 0 7 0 0 0 0 1 0 0 0 0 3 0 0 0 18 0 0 0 0 0 0 0 2 0 0 0 0 0 0 2 0 1 0 0 0 0 0 2 0 0 0 0 0 0 4 1 0 0 0 0 0 0 2 0 0 0 0 0 0 0 0 0 2 0 1 0 0 0 0 0 0 0 0 0 0 0 0 1 0 0 0 0 0 0 0 0 0 0 3 0 0 0 0 0 0 0 2 0 0 0 0 0 1 0 1 0 0 0 5 0 0 0 1 0 0 0 0 0 0 0 5 0 0 0 0 0 0 0 0 2 0 0 0 0 0 0 1 0 1 0 0 0 0 0 1 1 0 0 2 1 0 12 0 0 0 0 2 0 0 0 0 0 0 20 0 0 0 0 0 0 0 1 0 1 0 0 0 0 0 0 0 0 0 0 0 0 2 0 0 0 0 0 0 0 2 0 0 0 0 0 0 1 0 0 0 0 0 2 0 0 0 0 0 0 0 0 0 0 0 0 3 0 0 0 1 0 0 0 0 0 0 0 0 1 0 0 0 0 0 0 0 0 0 0 0 0 1 0 0 0 0 0 11 0 0 0 0 0 0 0 0 0 0 0 0 0 0 0 0 0 0 0 0 0 0 0 1 0 0 0 0 1 0 0 0 0 0 0 0 0 2 0 0 0 0 0 0 0 0 0 0 0 0 0 0 0 0 0 0 0 0 0 0 0 0 0 0 4 15 0 0 0 0 0 0 0 3 0 0 2 0 0 0 0 0 0 1 0 0 0 4 3 0 1 0 0 0 0 0 0 0 0 0 0 0 0 0 0 0 0 0 0 0 0 0 0 0 0 0 0 0 0 0 0 0 0 0 0 0 0 0 0 0 0 0 0 0 0 0 0 0 0 0 13 0 1 0 0 0 0 0 2 0 0 0 0 0 4 0 0 0 2 0 0 0 0 0 0 1 0 0 0 3 0 0 0 0 0 0 0 0 3 0 0 0 0 1 0 0 3 0 0 0 1 0 2 0 0 0 0 0 0 0 0 0 0 0 0 0 0 0 0 0 0 0 0 1 0 0 0 0 0 2 0 2 1 0 0 0 11 0 0 0 0 0 0 0 0 0 0 0 0 0 0 0 0 0 0 0 8 0 0 2 0 0 0 0 0 0 0 0 0 0 0 0 0 0 0 0 0 0 0 0 0 0 0 0 0 0 1 0 0 0 0 0 0 0 0 0 0 0 0 0 0 0 0 0 4 0 0 0 0 0 0 0 0 0 0 0 0 0 0 0 0 1 0 0 0 0 0 1 0 0 0 0 0 0 1 0 17 0 0 0 0 0 0 0 0 0 0 0 0 0 0 0 0 0 0 0 0 0 0 0 0 0 0 0 0 0 4 4 0 0 0 0 0 0 0 0 0 0 0 1 0 0 0 0 0 0 0 0 9 0 10 12 0 0 0 0 0 0 0 0 0 0 0 0 0 0 0 0 0 0 0 0 0 0 0 0 0 0 0 0 0 8 0 0 0 0 0 0 0 0 0 0 2 0 1 2 0 0 0 0 0 0 0 0 1 0 0 0 0 0 0 0 0 0 0 0 0 0 0 2 0 0 0 0 0 1 0 3 0 0 0 0 0 0 0 0 0 0 0 0 0 0 0 0 0 1 0 0 0 0 0 0 0 0 0 0 0 0 0 0 3 0 0 3 1 0 0 0 0 0 0 0 0 0 0 0 0 0 0 0 0 1 0 2 0 0 0 0 0 2 0 0 0 0 0 0 0 0 0 0 0 0 0 0 4 0 0 0 0 0 0 1 0 0 0 0 0 0 0 0 1 1 0 2 0 0 14 0 11 11 0 3 0 19 0 0 0 0 0 0 0 0 0 0 0 0 0 0 0 0 0 0 1 0 1 0 0 0 0 0 9 0 0 3 0 0 0 0 0 0 0 0 10 0 0 0 0 0 0 0 0 0 0 16 21 9 0 0 0 0 0 0 7 0 0 0 0 0 2 0 0 0 0 7 0 0 0 0 0 5 1 0 0 2 0 0 0 5 0 3 5 0 0 0 0 2 11 0 0 0 1 0 0 0 2 0 0 3 1 0 14 0 11 0 0 0 5 0 13 0 0 0 0 0 1 0 0 1 0 0 10 1 0 0 0 4 4 0 0 0 0 1 22 0 0 0 0 0 0 0 0 0 0 0 0 0 0 0 0 0 0 0 11 0 17 0 0 0 2 0 0 0 1 0 12 0 0 0 1 0 0 0 0 0 0 0 0 0 0 0 0 0 0 0 0 0 0 0 0 3 0 0 0 14 1 0 0 0 0 0 0 0 0 6 2 0 0 11 0 0 0 0 0 0 0 5 0 0 0 0 0 0 0 0 0 1 17 0 0 0 0 0 0 0 0 0 0 0 0 0 0 0 0 0 0 0 0 0 2 0 9 0 0 0 2 15 0 0 0 1 0 0 0 10 1 0 16 0 10 0 3 2 0 0 0 0 0 0 0 0 13 1 4 0 0 0 0 4 0 0 0 2 0 0 0 0 0 0 10 0 0 0 0 0 0 2 0 0 5 0 0 3 0 0 0 2 0 0 0 0 0 0 0 0 0 0 0 9 0 2 0 2 0 0 0 0 0 0 0 0 0 0 0 20 2 0 0 0 0 0 0 0 0 1 0 0 0 0 0 0 0 0 3 0 0 0 0 0 1 0 0 0 0 0 3 0 0 0 0 0 0 0 0 12 0 0 1 0 0 0 0 0 0 0 0 0 0 0 0 5 0 8 0 3 0 0 0 0 0 0 16 0 0 9 0 0 0 0 10 13 1 0 0 0 0 0 11 0 0 0 0 1 0 0 0 0 1 0 0 0 0 1 2 2 1 0 0 11 0 16 0 0 12 15 5 0 2 0 1 0 3 0 0 2 0 0 0 2 0 0 0 1 0 0 0 0 3 0 11 0 0 0 0 1 0 0 0 0 0 2 0 1 0 0 0 0 5 0 1 0 0 0 0 0 0 1 0 0 1 20 0 0 0 0 0 0 3 1 4 0 0 1 0 0 0 7 0 0 0 0 1 6 0 4 8 13 0 0 0 2 2 0 3 2 0 0 0 4 0 1 4 0 0 4 0 0 0 1 3 0 0 0 0 0 0 0 2 0 3 7 0 0 0 9 0 0 2 0 0 6 4 0 0 0 0 0 0 0 0 0 0 0 5 1 1 0 0 0 0 0 0 0 0 0 0 0 6 0 0 0 0 0 2 0 0 0 0 27 6 0 0 0 4 0 1 0 0 0 0 0 0 3 0 0 5 0 0 0 5 0 0 3 0 0 0 0 0 0 0 1 0 0 0 0 0 0 0 3 0 0 0 0 0 2 1 0 0 0 0 2 0 0 1 0 0 1 0 0 0 0 1 0 0 0 0 1 0 0 0 3 0 0 0 0 1 2 1 1 0 0 0 1 0 0 0 0 1 0 0 0 0 0 0 3 1 2 2 0 0 0 0 0 3 0 0 0 13 2 2 0 0 11 0 0 3 0 0 0 7 19 1 0 1 0 0 0 0 0 0 0 0 0 0 0 3 0 0 0 0 5 2 1 0 0 0 0 1 2 0 4 0 0 0 0 0 1 0 0 0 0 0 15 0 0 0 0 1 0 0 0 0 0 0 0 0 0 0 3 0 1 0 0 0 4 0 0 3 0 7 0 0 0 3 9 0 0 0 1 0 4 0 0 0 10 0 0 1 0 2 0 1 0 0 0 1 0 0 0 0 0 1 0 1 0 0 3 0 0 0 0 0 0 0 0 2 0 1 0 0 0 0 2 0 2 0 0 2 2 0 0 6 19 0 0 0 0 5 0 1 0 0 0 0 0 0 0 0 0 2 0 2 2 0 21 4 0 1 0 0 3 5 0 1 0 0 0 0 0 0 0 0 0 0 24 0 0 2 18 0 1 0 0 15 0 0 0 0 0 3 0 0 0 0 0 3 5 0 9 0 0 0 0 0 0 0 0 5 0 3 2 3 0 2 1 0 0 0 0 0 16 0 0 0 0 0 23 3 5 0 0 0 3 0 3 0 0 2 2 0 2 4 1 0 0 4 0 0 0 2 0 0 0 0 0 0 0 0 0 11 0 7 0 0 0 0 0 0 5 0 0 0 0 0 0 0 0 1 0 0 0 0 0 10 0 0 0 0 0 0 1 0 0 4 0 1 4 0 0 0 0 0 0 3 20 0 0 1 9 0 0 0 8 0 0 1 0 0 4 0 0 0 0 0 0 0 0 0 0 0 0 1 0 1 1 2 0 0 0 2 2 0 0 0 1 0 0 0 0 5 2 0 0 0 0 0 0 0 13 0 0 2 0 0 2 0 0 0 0 0 0 0 0 1 0 0 0 0 0 0 0 0 0 0 0 0 2 0 0 0 0 0 0 0 0 0 2 0 0 0 0 0 1 0 0 0 0 0 4 0 0 0 0 0 17 21 0 4 0 0 0 0 0 0 0 2 3 0 0 0 0 1 0 17 3 0 0 0 0 0 0 0 0 0 0 0 0 0 0 0 4 0 0 0 0 0 0 0 5 0 0 1 0 0 0 2 0 8 1 0 2 2 0 0 0 0 0 0 0 0 1 7 0 0 0 0 0 0 0 0 0 0 0 0 0 0 0 2 0 0 0 0 0 2 0 0 0 0 0 1 12 1 0 0 0 0 0 13 0 0 0 0 20 0 1 0 0 0 0 0 0 11 0 0 0 0 0 0 0 0 0 0 0 0 0 0 0 0 0 0 0 0 0 0 2 0 0 1 0 0 0 0 0 0 2 10 0 0 20 0 0 0 0 5 0 0 0 0 3 0 0 0 0 0 0 1 0 2 0 0 1 0 0 6 0 0 0 0 0 0 0 0 1 3 0 0 3 3 20 0 0 0 0 0 0 0 0 1 0 0 0 13 0 0 0 0 0 0 6 0 0 0 0 0 0 0 0 0 0 0 0 5 0 0 0 0 0 0 0 0 0 0 0 0 0 14 0 0 0 20 2 3 1 0 3 0 0 0 0 0 4 5 1 0 0 0 0 0 0 1 0 0 6 6 3 0 0 2 0 0 0 0 1 0 0 2 1 0 0 3 1 0 0 1 3 0 0 0 0 0 0 0 0 1 0 0 0 0 0 0 0 0 0 0 0 0 1 0 0 0 0 0 0 1 0 0 0 0 0 0 0 0 0 0 0 0 1 0 0 0 0 0 0 0 0 0 0 0 0 0 0 0 0 0 2 0 0 0 0 0 0 0 0 0 0 0 0 0 0 0 0 0 0 0 0 0 0 0 0 4 0 3 0 0 0 0 2 21 0 0 0 1 0 0 0 0 0 0 24 0 2 7 0 0 0 0 0 0 0 0 2 0 0 0 0 0 0 0 1 0 0 0 1 0 0 0 0 0 0 0 0 4 1 0 0 0 0 21 0 0 0 0 0 4 21 1 0 0 0 1 0 0 0 0 0 0 0 0 0 7 4 0 0 0 0 0 0 0 0 0 0 0 0 0 0 5 1 0 0 0 0 2 0 0 0 0 1 0 0 0 0 2 1 2 0 0 0 1 0 3 2 0 0 0 0 0 0 0 0 0 0 0 0 17 4 5 0 0 4 0 0 2 0 0 0 0 5 0 0 0 2 0 22 0 1 1 0 0 4 16 0 3 1 0 2 0 0 0 0 0 0 0 0 0 0 3 0 0 2 0 0 0 0 5 0 0 0 0 0 0 0 0 0 0 0 0 4 0 0 0 7 0 0 0 0 0 0 1 0 0 0 0 0 0 3 0 0 0 0 0 0 0 7 0 0 0 0 1 0 1 2 0 12 0 0 4 0 0 2 0 6 0 0 0 0 0 0 0 0 0 2 0 0 1 1 0 0 0 0 0 0 8 0 4 0 0 0 23 0 3 0 2 0 0 0 0 0 0 0 2 0 0 0 4 22 0 3 0 0 4 0 0 0 0 2 0 1 1 4 0 2 0 0 0 0 1 0 0 3 0 0 0 0 0 0 0 0 0 0 0 0 0 0 0 0 9 2 0 2 0 0 0 3 0 0 0 0 0 1 0 0 0 1 0 0 0 0 1 0 2 0 0 0 0 0 0 0 0 2 0 0 5 0 0 0 0 0 0 0 0 1 1 0 0 0 0 0 0 0 0 0 0 0 4 0 0 2 0 0 0 1 0 2 0 0 0 0 0 0 1 0 0 0 0 0 0 0 0 0 0 0 0 0 0 0 0 0 0 0 7 0 0 0 0 0 0 0 0 1 0 0 0 0 0 0 0 0 0 0 1 0 0 0 0 5 0 0 0 0 0 0 0 3 0 0 0 0 2 0 0 1 0 0 0 3 0 0 0 0 0 0 0 0 0 0 0 0 0 0 0 0 0 0 0 0 0 0 0 0 0 1 0 0 0 0 0 0 0 0 0 0 0 2 0 0 0 0 0 0 0 0 0 0 26 2 0 6 8 0 0 0 0 25 0 0 1 21 0 2 0 2 1 1 0 0 6 0 0 2 0 0 0 0 9 1 0 0 1 0 4 3 0 0 5 0 0 0 0 0 4 0 8 5 0 0 0 18 0 0 0 0 1 0 1 0 0 0 0 0 0 0 0 0 0 2 0 0 0 0 0 0 0 0 0 0 0 0 0 0 0 2 0 0 0 0 0 0 0 0 1 0 0 0 0 0 0 0 0 0 0 0 0 13 0 0 0 1 0 0 0 0 0 0 0 0 0 2 20 0 0 0 0 0 0 0 0 0 0 0 5 0 0 0 0 0 0 15 0 0 0 0 0 0 0 0 0 0 0 0 5 0 1 0 3 0 0 2 0 0 0 0 0 0 0 0 0 2 0 0 0 0 0 0 0 0 0 0 0 0 1 0 0 0 0 0 0 0 23 2 0 0 0 0 0 0 0 0 0 0 2 0 0 0 0 0 0 0 0 0 0 0 1 0 0 0 0 0 3 0 0 0 0 0 0 0 0 0 0 0 0 0 0 0 0 0 0 0 0 0 6 4 0 0 2 21 9 0 1 1 0 0 0 4 0 1 0 0 9 0 0 0 0 0 6 0 0 1 0 0 0 7 5 0 16 0 5 0 0 6 20 0 1 0 0 0 8 0 0 0 0 0 0 0 0 0 0 5 0 0 23 0 0 2 0 0 0 0 0 2 0 0 7 0 1 0 0 0 0 0 0 0 0 0 0 3 1 0 0 0 0 2 0 0 0 0 0 4 0 2 0 0 0 0 0 1 1 2 4 0 0 0 0 0 1 0 0 0 0 0 0 4 0 4 6 0 0 0 0 0 0 0 1 0 1 0 4 0 0 0 0 0 0 4 0 0 0 0 0 0 0 0 0 0 0 4 1 0 0 0 0 0 0 9 0 0 0 26 3 3 0 0 4 0 7 0 0 0 2 0 0 0 0 0 0 0 0 0 0 0 0 0 0 0 1 0 0 0 0 0 0 0 0 12 0 0 0 6 0 0 0 0 0 0 0 0 0 0 0 0 0 0 0 0 0 0 0 0 0 0 0 0 0 4 0 0 0 0 0 0 11 0 7 8 0 2 0 0 0 0 0 0 0 0 0 0 0 0 0 0 0 0 13 0 0 0 7 0 0 0 0 0 1 0 0 0 1 0 0 0 2 0 0 0 0 0 0 0 0 0 0 0 0 15 2 1 0 0 0 0 0 0 0 0 0 0 0 0 0 0 0 0 0 4 0 0 0 0 0 0 0 0 0 0 0 0 0 0 0 0 0 1 0 0 1 0 0 0 0 0 0 0 0 0 0 0 0 0 1 0 0 0 0 0 0 0 2 0 0 0 3 0 5 1 0 0 0 0 0 0 0 0 0 0 0 0 0 0 0 0 0 0 0 0 0 3 0 0 0 0 0 0 0 0 0 0 0 0 3 0 0 0 0 0 1 0 0 0 0 0 0 0 0 0 0 2 0 0 0 1 0 0 0 4 0 0 0 0 0 0 2 0 0 0 0 0 0 0 1 0 0 0 0 0 0 0 0 0 0 0 0 0 1 12 0 0 0 0 0 0 0 0 0 0 0 0 0 0 3 0 0 0 0 0 0 0 0 0 0 0 0 0 0 0 0 0 0 0 0 0 0 4 1 0 0 0 0 0 0 7 0 0 1 0 0 0 0 0 11 0 0 0 0 0 0 0 0 0 0 0 0 0 0 0 0 0 0 0 0 0 0 0 0 1 0 0 1 0 0 1 1 0 0 0 0 0 0 0 0 0 0 0 0 0 0 0 0 0 0 12 0 6 0 0 0 0 0 0 0 0 0 0 0 0 0 0 0 0 0 0 0 0 0 0 0 0 1 0 0 0 2 0 0 0 0 1 0 0 0 0 12 0 0 0 0 0 3 0 0 0 0 0 0 0 0 0 0 0 0 0 0 0 0 0 0 8 0 0 0 0 0 3 0 10 0 0 0 0 0 0 0 0 0 0 0 0 0 2 0 9 0 0 0 0 0 0 13 0 0 0 1 0 0 0 0 0 0 0 1 0 1 0 0 0 1 13 0 0 0 0 0 0 0 6 0 0 9 4 0 0 0 0 0 0 0 0 0 0 0 0 5 0 0 0 0 0 0 0 0 0 0 0 0 0 0 0 0 0 0 1 8 0 0 0 0 0 0 0 0 0 0 0 0 0 0 0 0 0 0 0 2 1 0 0 0 0 0 0 0 0 0 0 0 2 0 0 2 0 0 0 0 0 0 0 0 0 0 0 0 0 0 0 0 0 3 0 0 0 0 5 0 0 0 0 0 0 0 0 1 0 0 0 0 0 0 0 0 0 0 0 0 0 0 0 0 7 0 0 0 0 0 0 0 0 2 0 0 0 0 0 6 0 0 0 0 0 0 0 0 0 0 0 3 0 0 0 0 0 1 0 0 0 0 0 1 0 0 0 0 0 1 0 0 0 0 0 0 0 0 0 0 0 0 0 0 5 0 0 5 0 0 0 0 4 0 1 0 0 3 0 0 0 0 0 0 0 0 0 0 0 0 0 0 5 0 1 5 1 0 3 0 0 0 0 0 0 0 0 0 0 0 0 0 0 0 0 0 0 0 0 1 0 0 0 2 0 0 0 0 0 0 0 0 0 3 0 0 0 0 0 5 0 4 0 0 0 0 0 1 0 0 0 0 0 0 0 0 0 2 0 0 0 0 0 0 0 0 0 0 0 0 0 20 0 0 0 0 0 0 0 0 0 0 0 0 0 0 0 0 1 0 0 0 0 0 0 15 0 0 0 0 0 0 0 0 0 0 0 0 0 0 10 0 0 0 0 0 0 0 0 0 0 0 5 0 0 0 0 0 2 0 0 0 0 5 6 0 1 0 0 0 0 1 0 0 0 0 0 0 0 0 0 0 0 0 0 0 0 0 1 1 0 0 0 0 0 0 0 1 0 0 0 0 0 1 0 0 7 8 0 0 0 0 0 0 0 0 2 0 0 4 0 0 0 0 0 0 0 0 0 3 0 7 0 0 0 0 0 1 0 0 2 0 0 0 0 0 0 0 0 0 0 0 0 0 0 0 0 1 2 0 0 0 3 0 0 0 0 0 0 0 0 0 0 0 0 0 0 0 0 0 1 0 0 0 0 0 0 0 1 0 0 0 0 6 0 0 0 0 0 0 0 0 0 0 0 1 23 0 1 0 0 0 1 0 1 0 0 0 0 0 0 0 0 0 0 2 0 0 0 0 0 0 0 0 0 0 0 0 0 2 0 0 0 17 0 0 0 1 0 0 0 0 0 1 0 0 0 0 0 0 0 0 0 0 0 0 0 0 0 0 0 0 0 0 0 1 0 0 0 0 0 0 0 0 0 0 0 0 0 0 0 0 0 0 0 0 0 0 0 0 0 0 0 0 0 0 0 0 0 0 0 0 0 0 0 0 0 0 0 0 0 0 0 0 0 0 0 0 0 0 0 0 0 0 0 0 0 0 0 0 0 0 0 0 0 0 0 0 0 0 0 0 0 0 0 0 0 0 0 0 0 0 0 0 0 1 1 0 0 0 0 0 0 1 1 0 1 0 0 0 1 0 0 0 0 0 0 0 0 0 0 0 0 0 0 0 0 0 0 0 0 0 0 2 0 0 0 0 0 0 0 0 0 0 0 0 0 0 0 0 3 0 0 2 0 0 2 0 0 0 15 0 0 0 0 0 0 0 0 0 0 8 0 0 0 0 0 0 0 0 0 0 0 0 0 0 0 0 0 0 0 0 0 0 6 0 0 0 0 0 0 0 1 0 1 0 3 0 1 0 0 0 1 0 0 0 2 0 0 0 0 0 0 0 0 0 0 1 3 0 0 0 4 0 0 0 0 0 0 0 0 5 0 0 0 4 0 0 0 0 0 0 0 0 0 0 0 0 0 0 2 0 0 0 0 0 0 0 0 0 0 0 4 0 0 0 0 3 0 3 0 0 0 0 0 0 0 0 0 0 0 0 0 0 0 0 0 0 0 0 0 0 0 1 0 0 0 0 0 1 0 0 0 0 1 0 0 0 0 0 0 0 0 0 0 0 0 4 0 0 0 0 2 3 0 0 4 0 0 0 0 0 0 0 0 0 0 0 0 4 0 0 0 1 0 0 0 0 0 0 0 0 0 1 0 0 0 1 0 0 0 0 0 1 0 0 0 0 0 0 0 0 0 0 1 0 1 0 0 0 0 0 0 0 0 0 0 0 0 0 0 0 0 4 0 0 1 0 0 0 0 0 0 0 0 4 0 0 0 0 1 0 0 0 0 0 0 0 0 0 3 0 0 0 0 0 0 1 0 0 0 0 0 0 0 0 0 0 0 0 0 0 0 0 0 0 0 0 0 0 0 0 0 0 0 0 0 1 7 0 0 0 2 0 0 13 0 0 0 0 0 0 0 0 0 0 0 0 0 12 0 0 0 0 0 10 0 0 0 0 0 0 0 0 0 0 0 0 0 0 0 0 0 0 2 0 0 0 0 0 0 0 0 0 0 0 5 0 0 0 0 0 0 18 0 0 1 0 0 0 0 0 0 0 0 0 0 0 0 6 5 0 0 0 1 0 0 0 0 0 0 0 0 0 0 3 0 0 0 0 0 0 2 1 0 0 0 0 0 0 0 0 0 0 4 0 1 2 2 0 0 11 1 0 0 1 0 0 0 0 0 0 0 0 0 0 0 0 4 0 0 0 0 0 0 0 0 0 0 0 0 0 0 0 0 0 0 3 0 0 2 0 0 0 0 2 0 0 0 2 0 0 1 0 0 0 0 0 0 0 2 1 0 0 0 0 3 3 0 1 0 0 0 0 3 0 1 0 1 0 0 2 6 0 0 0 0 0 0 0 0 0 0 0 0 1 0 0 0 0 0 0 2 0 0 0 0 0 0 1 0 0 0 0 0 0 0 0 0 0 0 0 0 0 0 4 1 0 0 0 0 0 3 0 0 0 0 0 0 0 2 16 0 0 0 0 0 0 0 0 0 0 0 0 2 0 0 0 0 0 0 0 0 0 6 0 0 3 0 0 0 0 0 0 0 0 3 1 0 0 0 0 0 0 0 0 0 4 0 0 0 0 0 0 4 0 0 0 0 0 0 0 0 3 0 0 0 0 0 0 0 0 0 12 0 0 0 0 0 14 10 0 0 0 14 0 0 0 0 0 0 0 0 0 0 0 0 0 0 9 0 0 12 0 0 0 0 0 0 0 0 0 1 0 0 0 0 0 1 0 2 0 0 0 0 6 0 0 0 0 0 0 0 0 0 0 2 0 10 0 0 0 0 0 0 0 0 3 0 0 0 0 0 0 0 0 0 0 0 0 0 0 0 0 0 0 0 0 6 0 0 0 0 0 0 0 9 3 11 0 4 0 0 0 0 0 0 0 0 3 0 0 0 0 4 12 17 0 3 0 0 0 0 0 0 10 0 0 6 0 0 0 0 0 0 0 0 0 0 0 0 13 0 2 0 0 2 0 0 0 0 0 0 0 0 0 0 0 0 0 0 0 0 0 0 0 0 0 0 1 0 0 0 0 0 0 0 0 0 0 11 0 0 1 1 0 1 0 0 0 0 0 0 0 2 0 3 0 1 0 0 0 0 0 0 0 0 0 0 0 0 0 0 0 0 0 0 0 0 0 0 0 1 0 2 0 3 0 0 0 0 0 0 0 0 0 0 0 0 0 0 0 0 0 0 4 0 0 0 0 0 0 0 0 0 2 0 1 0 0 0 0 0 0 0 0 0 2 0 0 0 2 0 0 3 0 0 0 0 0 0 0 0 0 0 1 0 0 0 0 0 0 3 0 0 0 0 0 4 0 0 10 0 0 0 0 0 0 0 0 0 0 0 11 0 0 0 0 0 0 0 0 4 0 9 0 0 1 0 0 0 3 0 0 0 0 0 0 0 0 0 0 0 0 0 0 0 0 0 0 0 0 0 0 0 0 0 0 0 0 0 0 0 0 0 0 0 0 0 0 0 0 12 0 0 0 0 0 0 0 0 0 3 0 0 0 0 0 0 0 0 0 0 0 0 0 0 0 0 0 0 0 0 1 0 0 0 0 0 0 0 0 0 1 0 0 0 0 0 0 0 0 0 0 0 1 0 0 0 0 0 0 0 0 0 0 0 0 0 0 0 3 1 0 0 0 1 7 0 4 0 0 0 0 0 0 0 0 0 0 0 0 0 0 0 0 0 0 3 0 0 0 0 3 0 0 0 0 0 0 0 0 0 0 0 2 0 0 0 0 0 0 0 0 0 0 0 0 0 0 0 0 0 0 0 0 0 0 1 0 0 0 0 0 1 1 0 0 0 0 0 0 0 0 0 0 0 0 0 0 3 1 0 1 0 0 0 0 0 10 0 0 1 0 0 0 0 0 0 0 0 0 0 0 0 0 0 0 0 0 0 0 0 0 0 0 0 0 1 0 0 0 0 0 0 0 0 0 0 0 0 0 0 0 2 4 0 0 0 0 0 0 0 0 0 0 0 6 0 0 0 0 1 0 0 0 0 0 0 1 4 2 1 0 1 0 2 0 0 0 0 2 0 0 2 0 0 0 0 0 0 0 0 0 0 0 0 0 0 0 0 2 0 0 0 0 0 3 0 0 0 0 0 4 0 0 0 0 0 0 0 1 0 9 0 0 0 0 0 0 0 0 0 0 3 4 0 0 6 0 0 17 0 0 0 0 0 0 3 0 0 0 0 0 0 0 0 0 0 0 0 0 0 9 0 0 0 2 0 0 2 0 0 0 0 0 0 0 0 0 0 0 2 0 0 1 0 0 0 0 0 0 0 0 1 1 0 0 0 0 3 1 0 12 0 0 2 0 3 0 13 2 0 0 0 2 0 0 0 0 0 0 0 0 0 0 0 0 0 0 0 0 0 0 0 0 0 0 0 9 0 0 0 0 0 0 0 0 0 0 0 0 0 2 0 0 0 0 0 10 0 14 0 0 0 4 0 0 0 0 2 0 0 0 0 0 0 0 5 2 0 12 0 0 0 0 0 0 0 0 0 0 2 0 0 0 0 2 0 0 0 3 0 14 4 0 2 0 0 0 4 0 0 0 0 0 4 0 0 0 0 0 1 0 0 0 0 0 0 0 0 4 0 0 0 0 2 0 6 2 0 0 2 0 0 0 0 0 0 7 2 0 1 0 0 10 13 0 0 2 0 0 0 0 0 2 0 0 0 0 0 0 0 0 0 0 0 0 0 1 0 0 0 0 0 0 0 0 0 8 0 0 0 0 0 0 0 0 0 2 0 2 2 0 0 0 0 0 0 0 0 0 0 0 0 0 3 2 2 0 0 0 0 0 0 1 0 0 1 0 0 0 0 0 0 0 0 4 0 0 0 0 2 0 0 0 0 0 0 0 0 3 0 1 0 0 0 14 0 0 2 0 0 0 0 0 0 1 0 15 0 0 2 0 0 0 0 0 0 0 3 0 0 0 0 0 0 0 3 0 0 2 0 0 0 0 0 0 0 16 0 0 0 0 0 0 0 0 0 0 0 0 0 0 0 2 0 0 0 0 16 0 0 0 17 0 0 0 0 0 0 18 0 0 2 0 0 0 0 0 1 1 0 13 12 0 0 5 0 1 0 0 0 0 2 0 0 0 0 3 0 0 4 15 0 9 0 0 0 0 0 0 0 0 0 0 0 0 0 0 0 0 0 0 0 0 0 0 0 0 0 0 0 1 0 0 0 0 0 3 0 2 0 0 0 0 0 0 0 0 0 0 0 0 0 0 0 0 1 4 0 0 0 0 0 0 0 0 0 0 0 0 0 0 0 0 0 0 0 0 0 2 0 0 0 0 0 0 1 0 0 0 18 0 0 0 0 0 0 0 0 0 0 3 0 0 0 0 0 0 0 2 0 0 0 0 0 0 0 0 1 0 0 0 0 0 0 0 0 0 0 0 0 0 1 0 0 0 0 0 0 0 0 0 0 0 0 0 0 0 0 0 0 5 0 0 0 0 0 14 0 0 0 0 0 0 1 0 0 0 0 0 1 0 0 0 0 0 0 0 0 0 0 0 0 0 0 2 0 0 0 0 1 2 0 0 1 0 0 0 8 0 6 0 0 0 13 13 0 0 9 0 1 0 0 0 0 0 1 0 0 0 0 0 0 4 0 6 0 1 5 0 0 0 0 0 0 0 0 12 0 1 0 0 0 0 1 0 10 0 0 0 0 0 0 0 0 0 0 2 16 0 0 0 0 16 0 0 1 2 0 0 3 0 0 0 1 1 5 0 0 0 0 0 4 0 0 0 0 0 0 14 2 3 0 0 0 2 0 0 0 0 0 1 1 0 0 0 0 0 0 0 0 0 0 0 0 0 0 0 3 0 0 0 0 0 0 0 3 0 0 0 0 0 4 0 0 0 2 6 0 0 0 0 0 6 4 0 0 0 2 0 0 4 0 0 0 0 0 0 0 0 0 0 0 0 0 0 0 0 0 0 0 0 0 0 0 0 0 0 3 0 14 3 0 0 1 0 5 0 0 0 1 0 7 0 0 1 0 0 0 0 0 1 0 0 0 0 0 8 0 0 0 11 0 0 0 0 0 2 0 0 0 0 0 0 1 0 0 0 0 0 0 2 0 0 0 16 0 0 0 0 0 0 0 0 0 5 0 0 0 0 0 0 0 0 0 0 0 20 0 0 0 0 0 0 0 2 0 0 0 1 0 0 0 0 0 0 0 0 4 0 0 0 0 0 0 4 0 0 0 0 0 0 0 0 0 0 0 0 0 12 0 0 0 0 0 0 3 0 0 0 0 0 0 0 2 2 0 0 0 0 0 0 0 1 0 0 0 14 0 0 0 3 0 0 0 0 0 0 0 0 0 0 0 0 0 0 0 0 14 0 0 0 4 0 0 0 0 0 0 0 0 0 0 0 0 0 0 0 0 0 0 1 0 0 0 0 1 0 0 0 3 0 0 0 0 0 13 0 0 0 0 0 0 0 1 0 0 0 0 0 0 0 0 0 0 0 1 0 13 1 0 0 0 0 3 0 0 0 2 0 0 0 1 1 0 0 2 0 0 2 0 0 1 0 0 0 2 0 5 0 0 0 7 0 0 0 0 0 0 0 13 12 0 0 0 0 0 0 0 0 0 0 0 0 8 13 14 0 0 0 0 0 12 0 0 0 0 0 0 0 0 0 0 0 0 5 6 0 0 0 0 0 0 0 0 0 0 3 0 2 0 0 0 3 1 0 0 0 2 0 0 0 2 0 0 0 0 0 1 0 0 0 0 0 0 10 0 0 0 0 0 0 0 0 0 0 0 1 2 0 0 0 0 0 0 0 0 0 0 0 8 0 0 0 0 0 0 0 0 0 0 0 0 0 0 2 0 0 0 0 0 0 0 0 0 0 0 0 3 0 0 0 0 0 0 0 0 0 0 0 0 0 0 0 0 0 2 2 0 0 0 5 0 0 0 0 0 0 5 2 0 0 0 0 0 0 0 0 0 0 0 0 0 0 0 0 0 0 0 0 0 0 0 0 0 0 0 0 0 0 0 0 19 0 0 0 0 0 0 0 0 0 0 0 8 0 0 0 0 0 7 0 0 0 1 0 0 1 0 0 0 0 0 0 0 0 0 0 0 0 0 0 0 0 0 0 0 0 0 1 3 0 0 0 0 0 0 0 0 0 0 0 0 0 0 0 0 0 0 0 0 0 0 0 0 0 0 0 0 0 2 0 0 0 1 0 0 0 0 0 0 0 0 0 0 0 0 0 0 0 0 0 0 0 2 0 0 2 0 8 0 0 0 0 0 0 0 0 0 0 0 0 0 0 0 0 2 0 0 0 0 0 0 0 0 0 18 0 0 0 0 0 0 6 2 0 0 0 14 0 0 0 0 0 0 0 0 0 0 0 0 2 0 0 0 0 0 0 0 0 0 0 0 0 0 0 0 0 2 0 0 1 0 0 0 0 0 0 1 0 0 0 0 0 2 0 0 0 0 2 0 0 0 0 0 2 0 0 0 0 0 0 0 0 0 0 0 0 0 0 0 0 0 0 0 0 1 0 0 0 0 0 0 0 0 0 0 1 0 0 0 0 0 0 0 0 0 0 0 0 0 0 0 0 0 0 0 0 0 0 0 0 0 0 0 0 0 0 0 0 0 0 0 1 0 0 0 0 0 0 0 0 0 0 0 0 0 0 0 0 0 1 0 0 0 0 0 0 0 0 0 1 1 1 0 0 0 0 0 0 0 0 0 0 0 0 0 0 0 0 0 1 0 1 0 0 0 0 0 0 0 0 0 1 0 0 0 0 0 1 0 0 0 1 0 0 
27
213
814 2731 3587 4630 2049 1959 1896 2534 3157 999 7053 7311 1539 1131 2896 4862 1744 3330 2536 2833 2556 2267 1952 227 3084 2160 4685 3468 1260 2860 7155 2694 4317 2041 1899 2954 2718 4706 1675 655 7371 1919 1029 2614 2821 2735 2226 6287 1221 1624 2992 4938 847 214 4266 1586 7133 1922 6925 4353 1836 3057 1792 4073 1765 1514 2927 1647 3560 1972 1703 5412 3340 2405 4228 228 3437 7132 4427 1548 2765 4477 1809 5319 2668 1575 523 3172 3234 1546 1876 2203 2654 3101 2416 3242 1515 4305 3628 2687 6409 3061 1829 3426 2353 4402 1940 4187 4214 2819 2802 762 3094 2109 2592 1872 1902 1814 4126 271 1971 1877 4780 3088 2773 3299 4328 3221 2673 1018 1923 1941 3295 2428 4396 303 4371 1973 1943 4099 2749 1304 1559 3354 1504 4035 2669 2824 3333 295 2599 1958 1540 2867 1628 2636 3318 2212 2670 1934 4372 3334 2586 1900 2775 12 1612 1775 3466 4405 4471 1848 1623 6842 4965 3402 2404 5998 2179 1678 2699 2553 2313 1138 1728 1137 1745 3461 6432 5473 3184 1050 3307 4458 91 3457 183 7041 2427 3048 2693 3097 3051 2542 2386 346 2796 3786 7367 6675 1582 1537 6645 
